HTTP/2 301 
date: Tue, 02 May 2023 02:16:44 GMT
content-type: text/html; charset=utf-8
content-length: 102
location: https://gitlab.com/Molcas/OpenMolcas
cache-control: no-cache
content-security-policy: base-uri 'self'; child-src https://www.google.com/recaptcha/ https://www.recaptcha.net/ https://content.googleapis.com https://content-compute.googleapis.com https://content-cloudbilling.googleapis.com https://content-cloudresourcemanager.googleapis.com https://www.googletagmanager.com/ns.html https://*.zuora.com/apps/PublicHostedPageLite.do https://gitlab.com/admin/ https://gitlab.com/assets/ https://gitlab.com/-/speedscope/index.html https://gitlab.com/-/sandbox/ https://gitlab.com/assets/ blob: data:; connect-src 'self' https://gitlab.com wss://gitlab.com https://sentry.gitlab.net https://new-sentry.gitlab.net https://customers.gitlab.com https://snowplow.trx.gitlab.net https://sourcegraph.com snowplow.trx.gitlab.net https://sourcegraph.com/.api/; default-src 'self'; font-src 'self'; form-action 'self' https: http:; frame-ancestors 'self'; frame-src 'self' https://www.google.com/recaptcha/ https://www.recaptcha.net/ https://content.googleapis.com https://content-cloudresourcemanager.googleapis.com https://content-compute.googleapis.com https://content-cloudbilling.googleapis.com https://*.codesandbox.io https://customers.gitlab.com https://*.zuora.com/apps/PublicHostedPageLite.do; img-src * data: blob:; manifest-src 'self'; media-src 'self' data: http: https:; object-src 'none'; report-uri https://sentry.gitlab.net/api/105/security/?sentry_key=a42ea3adc19140d9a6424906e12fba86; script-src 'strict-dynamic' 'self' 'unsafe-inline' 'unsafe-eval' https://www.google.com/recaptcha/ https://www.gstatic.com/recaptcha/ https://www.recaptcha.net/ https://apis.google.com https://*.zuora.com/apps/PublicHostedPageLite.do 'nonce-+vaVfF0eqoVqScea9S0qwg=='; style-src 'self' 'unsafe-inline'; worker-src https://gitlab.com blob: data:
permissions-policy: interest-cohort=()
referrer-policy: strict-origin-when-cross-origin
x-content-type-options: nosniff
x-download-options: noopen
x-frame-options: SAMEORIGIN
x-permitted-cross-domain-policies: none
x-request-id: 01GZD3YX1014QW0F8JTYH3AETW
x-runtime: 0.052209
x-ua-compatible: IE=edge
x-xss-protection: 1; mode=block
gitlab-lb: fe-25-lb-gprd
gitlab-sv: web-gke-us-east1-c
cf-cache-status: MISS
report-to: {"endpoints":[{"url":"https:\/\/a.nel.cloudflare.com\/report\/v3?s=aNB7tCakDHHUjogb1FOJFATycQzEfgi2%2FPVD3msEfPs95usyf0cKX0NBC2PrNEdjv2IYgUYcFG7lpT13hITkou8XJbbx6xFatS%2FO6W7vkQ2P1LuzxdZQTA894uFesyxaD4CpqlyKaiQ%3D"}],"group":"cf-nel","max_age":604800}
nel: {"success_fraction":0.01,"report_to":"cf-nel","max_age":604800}
strict-transport-security: max-age=31536000
set-cookie: _cfuvid=vmCwESkmn_M93aNVHuctrciXsEG94zMkNZzQULWNbos-1682993804386-0-604800000; path=/; domain=.gitlab.com; HttpOnly; Secure; SameSite=None
server: cloudflare
cf-ray: 7c0cc38caf13c06b-ORF

HTTP/2 200 
date: Tue, 02 May 2023 02:16:44 GMT
content-type: text/html; charset=utf-8
cache-control: max-age=0, private, must-revalidate
content-security-policy: base-uri 'self'; child-src https://www.google.com/recaptcha/ https://www.recaptcha.net/ https://content.googleapis.com https://content-compute.googleapis.com https://content-cloudbilling.googleapis.com https://content-cloudresourcemanager.googleapis.com https://www.googletagmanager.com/ns.html https://*.zuora.com/apps/PublicHostedPageLite.do https://gitlab.com/admin/ https://gitlab.com/assets/ https://gitlab.com/-/speedscope/index.html https://gitlab.com/-/sandbox/ https://gitlab.com/assets/ blob: data:; connect-src 'self' https://gitlab.com wss://gitlab.com https://sentry.gitlab.net https://new-sentry.gitlab.net https://customers.gitlab.com https://snowplow.trx.gitlab.net https://sourcegraph.com snowplow.trx.gitlab.net https://sourcegraph.com/.api/; default-src 'self'; font-src 'self'; form-action 'self' https: http:; frame-ancestors 'self'; frame-src 'self' https://www.google.com/recaptcha/ https://www.recaptcha.net/ https://content.googleapis.com https://content-cloudresourcemanager.googleapis.com https://content-compute.googleapis.com https://content-cloudbilling.googleapis.com https://*.codesandbox.io https://customers.gitlab.com https://*.zuora.com/apps/PublicHostedPageLite.do; img-src * data: blob:; manifest-src 'self'; media-src 'self' data: http: https:; object-src 'none'; report-uri https://sentry.gitlab.net/api/105/security/?sentry_key=a42ea3adc19140d9a6424906e12fba86; script-src 'strict-dynamic' 'self' 'unsafe-inline' 'unsafe-eval' https://www.google.com/recaptcha/ https://www.gstatic.com/recaptcha/ https://www.recaptcha.net/ https://apis.google.com https://*.zuora.com/apps/PublicHostedPageLite.do 'nonce-iJJ5q5qLrWMaDMO6Af5WAQ=='; style-src 'self' 'unsafe-inline'; worker-src https://gitlab.com blob: data:
etag: W/"832a836ef632c0aef99604170fbe7fa7"
permissions-policy: interest-cohort=()
referrer-policy: strict-origin-when-cross-origin
set-cookie: event_filter=all; path=/; Secure; SameSite=None
vary: Accept
x-content-type-options: nosniff
x-download-options: noopen
x-frame-options: SAMEORIGIN
x-permitted-cross-domain-policies: none
x-request-id: 01GZD3YX6029QS917702V6ZZNR
x-runtime: 0.278926
x-ua-compatible: IE=edge
x-xss-protection: 1; mode=block
gitlab-lb: fe-06-lb-gprd
gitlab-sv: web-gke-us-east1-b
cf-cache-status: MISS
report-to: {"endpoints":[{"url":"https:\/\/a.nel.cloudflare.com\/report\/v3?s=%2FwxglY3NaQW3GVQlENiDiKzbZZ6mQxZQ8fxqsuvHk4QKEhHag6no7cmpmd4JSfQqjJ8b4wQtZeLYZMZiiFQKbK%2Fkv%2FNZRNI1TYzmd%2BfRhmjWHe68J2NzRbhiPqiVrtyyonMTfkFEMJU%3D"}],"group":"cf-nel","max_age":604800}
nel: {"success_fraction":0.01,"report_to":"cf-nel","max_age":604800}
strict-transport-security: max-age=31536000
set-cookie: _gitlab_session=6da802ec4320bc2512fb55aa0323e72b; path=/; expires=Tue, 02 May 2023 04:16:44 GMT; secure; HttpOnly; SameSite=None
set-cookie: _cfuvid=o7mf_bEdqoBdKNtzi4z2dqAjLt4wG9sFik9DE7Xd0io-1682993804796-0-604800000; path=/; domain=.gitlab.com; HttpOnly; Secure; SameSite=None
server: cloudflare
cf-ray: 7c0cc38d9fd2c06b-ORF

