{ "id": 172736462, "node_id": "MDEwOlJlcG9zaXRvcnkxNzI3MzY0NjI=", "name": "azplugins", "full_name": "mphowardlab/azplugins", "private": false, "owner": { "login": "mphowardlab", "id": 64987711, "node_id": "MDEyOk9yZ2FuaXphdGlvbjY0OTg3NzEx", "avatar_url": "https://avatars.githubusercontent.com/u/64987711?v=4", "gravatar_id": "", "url": "https://api.github.com/users/mphowardlab", "html_url": "https://github.com/mphowardlab", "followers_url": "https://api.github.com/users/mphowardlab/followers", "following_url": "https://api.github.com/users/mphowardlab/following{/other_user}", "gists_url": "https://api.github.com/users/mphowardlab/gists{/gist_id}", "starred_url": "https://api.github.com/users/mphowardlab/starred{/owner}{/repo}", "subscriptions_url": "https://api.github.com/users/mphowardlab/subscriptions", "organizations_url": "https://api.github.com/users/mphowardlab/orgs", "repos_url": "https://api.github.com/users/mphowardlab/repos", "events_url": "https://api.github.com/users/mphowardlab/events{/privacy}", "received_events_url": "https://api.github.com/users/mphowardlab/received_events", "type": "Organization", "site_admin": false }, "html_url": "https://github.com/mphowardlab/azplugins", "description": "A HOOMD-blue component for soft matter simulations.", "fork": false, "url": "https://api.github.com/repos/mphowardlab/azplugins", "forks_url": "https://api.github.com/repos/mphowardlab/azplugins/forks", "keys_url": "https://api.github.com/repos/mphowardlab/azplugins/keys{/key_id}", "collaborators_url": "https://api.github.com/repos/mphowardlab/azplugins/collaborators{/collaborator}", "teams_url": "https://api.github.com/repos/mphowardlab/azplugins/teams", "hooks_url": "https://api.github.com/repos/mphowardlab/azplugins/hooks", "issue_events_url": "https://api.github.com/repos/mphowardlab/azplugins/issues/events{/number}", "events_url": "https://api.github.com/repos/mphowardlab/azplugins/events", "assignees_url": "https://api.github.com/repos/mphowardlab/azplugins/assignees{/user}", "branches_url": "https://api.github.com/repos/mphowardlab/azplugins/branches{/branch}", "tags_url": "https://api.github.com/repos/mphowardlab/azplugins/tags", "blobs_url": "https://api.github.com/repos/mphowardlab/azplugins/git/blobs{/sha}", "git_tags_url": "https://api.github.com/repos/mphowardlab/azplugins/git/tags{/sha}", "git_refs_url": "https://api.github.com/repos/mphowardlab/azplugins/git/refs{/sha}", "trees_url": "https://api.github.com/repos/mphowardlab/azplugins/git/trees{/sha}", "statuses_url": "https://api.github.com/repos/mphowardlab/azplugins/statuses/{sha}", "languages_url": "https://api.github.com/repos/mphowardlab/azplugins/languages", "stargazers_url": "https://api.github.com/repos/mphowardlab/azplugins/stargazers", "contributors_url": "https://api.github.com/repos/mphowardlab/azplugins/contributors", "subscribers_url": "https://api.github.com/repos/mphowardlab/azplugins/subscribers", "subscription_url": "https://api.github.com/repos/mphowardlab/azplugins/subscription", "commits_url": "https://api.github.com/repos/mphowardlab/azplugins/commits{/sha}", "git_commits_url": "https://api.github.com/repos/mphowardlab/azplugins/git/commits{/sha}", "comments_url": "https://api.github.com/repos/mphowardlab/azplugins/comments{/number}", "issue_comment_url": "https://api.github.com/repos/mphowardlab/azplugins/issues/comments{/number}", "contents_url": "https://api.github.com/repos/mphowardlab/azplugins/contents/{+path}", "compare_url": "https://api.github.com/repos/mphowardlab/azplugins/compare/{base}...{head}", "merges_url": "https://api.github.com/repos/mphowardlab/azplugins/merges", "archive_url": "https://api.github.com/repos/mphowardlab/azplugins/{archive_format}{/ref}", "downloads_url": "https://api.github.com/repos/mphowardlab/azplugins/downloads", "issues_url": "https://api.github.com/repos/mphowardlab/azplugins/issues{/number}", "pulls_url": "https://api.github.com/repos/mphowardlab/azplugins/pulls{/number}", "milestones_url": "https://api.github.com/repos/mphowardlab/azplugins/milestones{/number}", "notifications_url": "https://api.github.com/repos/mphowardlab/azplugins/notifications{?since,all,participating}", "labels_url": "https://api.github.com/repos/mphowardlab/azplugins/labels{/name}", "releases_url": "https://api.github.com/repos/mphowardlab/azplugins/releases{/id}", "deployments_url": "https://api.github.com/repos/mphowardlab/azplugins/deployments", "created_at": "2019-02-26T15:18:54Z", "updated_at": "2023-01-11T22:01:16Z", "pushed_at": "2022-11-01T15:11:08Z", "git_url": "git://github.com/mphowardlab/azplugins.git", "ssh_url": "git@github.com:mphowardlab/azplugins.git", "clone_url": "https://github.com/mphowardlab/azplugins.git", "svn_url": "https://github.com/mphowardlab/azplugins", "homepage": "", "size": 1691, "stargazers_count": 16, "watchers_count": 16, "language": "C++", "has_issues": true, "has_projects": true, "has_downloads": true, "has_wiki": false, "has_pages": false, "has_discussions": false, "forks_count": 10, "mirror_url": null, "archived": false, "disabled": false, "open_issues_count": 11, "license": { "key": "bsd-3-clause", "name": "BSD 3-Clause \"New\" or \"Revised\" License", "spdx_id": "BSD-3-Clause", "url": "https://api.github.com/licenses/bsd-3-clause", "node_id": "MDc6TGljZW5zZTU=" }, "allow_forking": true, "is_template": false, "web_commit_signoff_required": false, "topics": [ ], "visibility": "public", "forks": 10, "open_issues": 11, "watchers": 16, "default_branch": "main", "permissions": { "admin": false, "maintain": false, "push": false, "triage": false, "pull": true }, "temp_clone_token": "", "organization": { "login": "mphowardlab", "id": 64987711, "node_id": "MDEyOk9yZ2FuaXphdGlvbjY0OTg3NzEx", "avatar_url": "https://avatars.githubusercontent.com/u/64987711?v=4", "gravatar_id": "", "url": "https://api.github.com/users/mphowardlab", "html_url": "https://github.com/mphowardlab", "followers_url": "https://api.github.com/users/mphowardlab/followers", "following_url": "https://api.github.com/users/mphowardlab/following{/other_user}", "gists_url": "https://api.github.com/users/mphowardlab/gists{/gist_id}", "starred_url": "https://api.github.com/users/mphowardlab/starred{/owner}{/repo}", "subscriptions_url": "https://api.github.com/users/mphowardlab/subscriptions", "organizations_url": "https://api.github.com/users/mphowardlab/orgs", "repos_url": "https://api.github.com/users/mphowardlab/repos", "events_url": "https://api.github.com/users/mphowardlab/events{/privacy}", "received_events_url": "https://api.github.com/users/mphowardlab/received_events", "type": "Organization", "site_admin": false }, "network_count": 10, "subscribers_count": 4 }
