{ "id": 4812004, "node_id": "MDEwOlJlcG9zaXRvcnk0ODEyMDA0", "name": "metadynamics-plugin", "full_name": "jglaser/metadynamics-plugin", "private": false, "owner": { "login": "jglaser", "id": 1899768, "node_id": "MDQ6VXNlcjE4OTk3Njg=", "avatar_url": "https://avatars.githubusercontent.com/u/1899768?v=4", "gravatar_id": "", "url": "https://api.github.com/users/jglaser", "html_url": "https://github.com/jglaser", "followers_url": "https://api.github.com/users/jglaser/followers", "following_url": "https://api.github.com/users/jglaser/following{/other_user}", "gists_url": "https://api.github.com/users/jglaser/gists{/gist_id}", "starred_url": "https://api.github.com/users/jglaser/starred{/owner}{/repo}", "subscriptions_url": "https://api.github.com/users/jglaser/subscriptions", "organizations_url": "https://api.github.com/users/jglaser/orgs", "repos_url": "https://api.github.com/users/jglaser/repos", "events_url": "https://api.github.com/users/jglaser/events{/privacy}", "received_events_url": "https://api.github.com/users/jglaser/received_events", "type": "User", "site_admin": false }, "html_url": "https://github.com/jglaser/metadynamics-plugin", "description": "Metadynamics plugin for HOOMD-blue", "fork": false, "url": "https://api.github.com/repos/jglaser/metadynamics-plugin", "forks_url": "https://api.github.com/repos/jglaser/metadynamics-plugin/forks", "keys_url": "https://api.github.com/repos/jglaser/metadynamics-plugin/keys{/key_id}", "collaborators_url": "https://api.github.com/repos/jglaser/metadynamics-plugin/collaborators{/collaborator}", "teams_url": "https://api.github.com/repos/jglaser/metadynamics-plugin/teams", "hooks_url": "https://api.github.com/repos/jglaser/metadynamics-plugin/hooks", "issue_events_url": "https://api.github.com/repos/jglaser/metadynamics-plugin/issues/events{/number}", "events_url": "https://api.github.com/repos/jglaser/metadynamics-plugin/events", "assignees_url": "https://api.github.com/repos/jglaser/metadynamics-plugin/assignees{/user}", "branches_url": "https://api.github.com/repos/jglaser/metadynamics-plugin/branches{/branch}", "tags_url": "https://api.github.com/repos/jglaser/metadynamics-plugin/tags", "blobs_url": "https://api.github.com/repos/jglaser/metadynamics-plugin/git/blobs{/sha}", "git_tags_url": "https://api.github.com/repos/jglaser/metadynamics-plugin/git/tags{/sha}", "git_refs_url": "https://api.github.com/repos/jglaser/metadynamics-plugin/git/refs{/sha}", "trees_url": "https://api.github.com/repos/jglaser/metadynamics-plugin/git/trees{/sha}", "statuses_url": "https://api.github.com/repos/jglaser/metadynamics-plugin/statuses/{sha}", "languages_url": "https://api.github.com/repos/jglaser/metadynamics-plugin/languages", "stargazers_url": "https://api.github.com/repos/jglaser/metadynamics-plugin/stargazers", "contributors_url": "https://api.github.com/repos/jglaser/metadynamics-plugin/contributors", "subscribers_url": "https://api.github.com/repos/jglaser/metadynamics-plugin/subscribers", "subscription_url": "https://api.github.com/repos/jglaser/metadynamics-plugin/subscription", "commits_url": "https://api.github.com/repos/jglaser/metadynamics-plugin/commits{/sha}", "git_commits_url": "https://api.github.com/repos/jglaser/metadynamics-plugin/git/commits{/sha}", "comments_url": "https://api.github.com/repos/jglaser/metadynamics-plugin/comments{/number}", "issue_comment_url": "https://api.github.com/repos/jglaser/metadynamics-plugin/issues/comments{/number}", "contents_url": "https://api.github.com/repos/jglaser/metadynamics-plugin/contents/{+path}", "compare_url": "https://api.github.com/repos/jglaser/metadynamics-plugin/compare/{base}...{head}", "merges_url": "https://api.github.com/repos/jglaser/metadynamics-plugin/merges", "archive_url": "https://api.github.com/repos/jglaser/metadynamics-plugin/{archive_format}{/ref}", "downloads_url": "https://api.github.com/repos/jglaser/metadynamics-plugin/downloads", "issues_url": "https://api.github.com/repos/jglaser/metadynamics-plugin/issues{/number}", "pulls_url": "https://api.github.com/repos/jglaser/metadynamics-plugin/pulls{/number}", "milestones_url": "https://api.github.com/repos/jglaser/metadynamics-plugin/milestones{/number}", "notifications_url": "https://api.github.com/repos/jglaser/metadynamics-plugin/notifications{?since,all,participating}", "labels_url": "https://api.github.com/repos/jglaser/metadynamics-plugin/labels{/name}", "releases_url": "https://api.github.com/repos/jglaser/metadynamics-plugin/releases{/id}", "deployments_url": "https://api.github.com/repos/jglaser/metadynamics-plugin/deployments", "created_at": "2012-06-27T18:31:49Z", "updated_at": "2022-07-26T04:21:00Z", "pushed_at": "2020-01-13T15:41:25Z", "git_url": "git://github.com/jglaser/metadynamics-plugin.git", "ssh_url": "git@github.com:jglaser/metadynamics-plugin.git", "clone_url": "https://github.com/jglaser/metadynamics-plugin.git", "svn_url": "https://github.com/jglaser/metadynamics-plugin", "homepage": "http://jglaser.github.com/metadynamics-plugin/", "size": 799, "stargazers_count": 5, "watchers_count": 5, "language": "C++", "has_issues": true, "has_projects": true, "has_downloads": true, "has_wiki": true, "has_pages": true, "has_discussions": false, "forks_count": 4, "mirror_url": null, "archived": false, "disabled": false, "open_issues_count": 1, "license": null, "allow_forking": true, "is_template": false, "web_commit_signoff_required": false, "topics": [ ], "visibility": "public", "forks": 4, "open_issues": 1, "watchers": 5, "default_branch": "master", "permissions": { "admin": false, "maintain": false, "push": false, "triage": false, "pull": true }, "temp_clone_token": "", "network_count": 4, "subscribers_count": 1 }
