{ "id": 427675422, "node_id": "R_kgDOGX3PHg", "name": "pcNN_mol", "full_name": "ml-electron-project/pcNN_mol", "private": false, "owner": { "login": "ml-electron-project", "id": 47627719, "node_id": "MDQ6VXNlcjQ3NjI3NzE5", "avatar_url": "https://avatars.githubusercontent.com/u/47627719?v=4", "gravatar_id": "", "url": "https://api.github.com/users/ml-electron-project", "html_url": "https://github.com/ml-electron-project", "followers_url": "https://api.github.com/users/ml-electron-project/followers", "following_url": "https://api.github.com/users/ml-electron-project/following{/other_user}", "gists_url": "https://api.github.com/users/ml-electron-project/gists{/gist_id}", "starred_url": "https://api.github.com/users/ml-electron-project/starred{/owner}{/repo}", "subscriptions_url": "https://api.github.com/users/ml-electron-project/subscriptions", "organizations_url": "https://api.github.com/users/ml-electron-project/orgs", "repos_url": "https://api.github.com/users/ml-electron-project/repos", "events_url": "https://api.github.com/users/ml-electron-project/events{/privacy}", "received_events_url": "https://api.github.com/users/ml-electron-project/received_events", "type": "User", "site_admin": false }, "html_url": "https://github.com/ml-electron-project/pcNN_mol", "description": "PySCF version of physically constrained NN-based XC functional.", "fork": false, "url": "https://api.github.com/repos/ml-electron-project/pcNN_mol", "forks_url": "https://api.github.com/repos/ml-electron-project/pcNN_mol/forks", "keys_url": "https://api.github.com/repos/ml-electron-project/pcNN_mol/keys{/key_id}", "collaborators_url": "https://api.github.com/repos/ml-electron-project/pcNN_mol/collaborators{/collaborator}", "teams_url": "https://api.github.com/repos/ml-electron-project/pcNN_mol/teams", "hooks_url": "https://api.github.com/repos/ml-electron-project/pcNN_mol/hooks", "issue_events_url": "https://api.github.com/repos/ml-electron-project/pcNN_mol/issues/events{/number}", "events_url": "https://api.github.com/repos/ml-electron-project/pcNN_mol/events", "assignees_url": "https://api.github.com/repos/ml-electron-project/pcNN_mol/assignees{/user}", "branches_url": "https://api.github.com/repos/ml-electron-project/pcNN_mol/branches{/branch}", "tags_url": "https://api.github.com/repos/ml-electron-project/pcNN_mol/tags", "blobs_url": "https://api.github.com/repos/ml-electron-project/pcNN_mol/git/blobs{/sha}", "git_tags_url": "https://api.github.com/repos/ml-electron-project/pcNN_mol/git/tags{/sha}", "git_refs_url": "https://api.github.com/repos/ml-electron-project/pcNN_mol/git/refs{/sha}", "trees_url": "https://api.github.com/repos/ml-electron-project/pcNN_mol/git/trees{/sha}", "statuses_url": "https://api.github.com/repos/ml-electron-project/pcNN_mol/statuses/{sha}", "languages_url": "https://api.github.com/repos/ml-electron-project/pcNN_mol/languages", "stargazers_url": "https://api.github.com/repos/ml-electron-project/pcNN_mol/stargazers", "contributors_url": "https://api.github.com/repos/ml-electron-project/pcNN_mol/contributors", "subscribers_url": "https://api.github.com/repos/ml-electron-project/pcNN_mol/subscribers", "subscription_url": "https://api.github.com/repos/ml-electron-project/pcNN_mol/subscription", "commits_url": "https://api.github.com/repos/ml-electron-project/pcNN_mol/commits{/sha}", "git_commits_url": "https://api.github.com/repos/ml-electron-project/pcNN_mol/git/commits{/sha}", "comments_url": "https://api.github.com/repos/ml-electron-project/pcNN_mol/comments{/number}", "issue_comment_url": "https://api.github.com/repos/ml-electron-project/pcNN_mol/issues/comments{/number}", "contents_url": "https://api.github.com/repos/ml-electron-project/pcNN_mol/contents/{+path}", "compare_url": "https://api.github.com/repos/ml-electron-project/pcNN_mol/compare/{base}...{head}", "merges_url": "https://api.github.com/repos/ml-electron-project/pcNN_mol/merges", "archive_url": "https://api.github.com/repos/ml-electron-project/pcNN_mol/{archive_format}{/ref}", "downloads_url": "https://api.github.com/repos/ml-electron-project/pcNN_mol/downloads", "issues_url": "https://api.github.com/repos/ml-electron-project/pcNN_mol/issues{/number}", "pulls_url": "https://api.github.com/repos/ml-electron-project/pcNN_mol/pulls{/number}", "milestones_url": "https://api.github.com/repos/ml-electron-project/pcNN_mol/milestones{/number}", "notifications_url": "https://api.github.com/repos/ml-electron-project/pcNN_mol/notifications{?since,all,participating}", "labels_url": "https://api.github.com/repos/ml-electron-project/pcNN_mol/labels{/name}", "releases_url": "https://api.github.com/repos/ml-electron-project/pcNN_mol/releases{/id}", "deployments_url": "https://api.github.com/repos/ml-electron-project/pcNN_mol/deployments", "created_at": "2021-11-13T13:39:17Z", "updated_at": "2022-11-18T12:26:29Z", "pushed_at": "2022-01-17T07:54:54Z", "git_url": "git://github.com/ml-electron-project/pcNN_mol.git", "ssh_url": "git@github.com:ml-electron-project/pcNN_mol.git", "clone_url": "https://github.com/ml-electron-project/pcNN_mol.git", "svn_url": "https://github.com/ml-electron-project/pcNN_mol", "homepage": null, "size": 411, "stargazers_count": 1, "watchers_count": 1, "language": "Python", "has_issues": true, "has_projects": true, "has_downloads": true, "has_wiki": true, "has_pages": false, "has_discussions": false, "forks_count": 0, "mirror_url": null, "archived": false, "disabled": false, "open_issues_count": 0, "license": { "key": "apache-2.0", "name": "Apache License 2.0", "spdx_id": "Apache-2.0", "url": "https://api.github.com/licenses/apache-2.0", "node_id": "MDc6TGljZW5zZTI=" }, "allow_forking": true, "is_template": false, "web_commit_signoff_required": false, "topics": [ ], "visibility": "public", "forks": 0, "open_issues": 0, "watchers": 1, "default_branch": "main", "permissions": { "admin": false, "maintain": false, "push": false, "triage": false, "pull": true }, "temp_clone_token": "", "network_count": 0, "subscribers_count": 1 }
