HTTP/2 301 
date: Wed, 26 Apr 2023 22:23:01 GMT
content-type: text/html; charset=utf-8
content-length: 102
location: https://gitlab.com/Molcas/OpenMolcas
cache-control: no-cache
content-security-policy: base-uri 'self'; child-src https://www.google.com/recaptcha/ https://www.recaptcha.net/ https://content.googleapis.com https://content-compute.googleapis.com https://content-cloudbilling.googleapis.com https://content-cloudresourcemanager.googleapis.com https://www.googletagmanager.com/ns.html https://*.zuora.com/apps/PublicHostedPageLite.do https://gitlab.com/admin/ https://gitlab.com/assets/ https://gitlab.com/-/speedscope/index.html https://gitlab.com/-/sandbox/ https://gitlab.com/assets/ blob: data:; connect-src 'self' https://gitlab.com wss://gitlab.com https://sentry.gitlab.net https://new-sentry.gitlab.net https://customers.gitlab.com https://snowplow.trx.gitlab.net https://sourcegraph.com snowplow.trx.gitlab.net https://sourcegraph.com/.api/; default-src 'self'; font-src 'self'; frame-ancestors 'self'; frame-src 'self' https://www.google.com/recaptcha/ https://www.recaptcha.net/ https://content.googleapis.com https://content-cloudresourcemanager.googleapis.com https://content-compute.googleapis.com https://content-cloudbilling.googleapis.com https://*.codesandbox.io https://customers.gitlab.com https://*.zuora.com/apps/PublicHostedPageLite.do; img-src * data: blob:; manifest-src 'self'; media-src 'self' data: http: https:; object-src 'none'; report-uri https://sentry.gitlab.net/api/105/security/?sentry_key=a42ea3adc19140d9a6424906e12fba86; script-src 'strict-dynamic' 'self' 'unsafe-inline' 'unsafe-eval' https://www.google.com/recaptcha/ https://www.gstatic.com/recaptcha/ https://www.recaptcha.net/ https://apis.google.com https://*.zuora.com/apps/PublicHostedPageLite.do 'nonce-4THjvuyCR7fpRM+3LDLc9w=='; style-src 'self' 'unsafe-inline'; worker-src https://gitlab.com blob: data:; form-action 'self' https: http: https:
permissions-policy: interest-cohort=()
referrer-policy: strict-origin-when-cross-origin
x-content-type-options: nosniff
x-download-options: noopen
x-frame-options: SAMEORIGIN
x-permitted-cross-domain-policies: none
x-request-id: 01GYZTKBVFF5RGAR0B27QAH9D2
x-runtime: 0.081046
x-ua-compatible: IE=edge
x-xss-protection: 1; mode=block
gitlab-lb: fe-39-lb-gprd
gitlab-sv: web-gke-us-east1-b
cf-cache-status: MISS
report-to: {"endpoints":[{"url":"https:\/\/a.nel.cloudflare.com\/report\/v3?s=a52aqRDc5aYKlN7BWCBVbld7%2BldQJQ8BBwwd8HS%2FtHEkGyhohC0QJHyA5CBj6h1Qed7K1RTNPTvbixy2Xp3NunXaD7Xj7skYK%2F2iq5SKsTwp0Zn6D40op6dSYYsd%2Fg%2FX9hTQkcZfI78%3D"}],"group":"cf-nel","max_age":604800}
nel: {"success_fraction":0.01,"report_to":"cf-nel","max_age":604800}
strict-transport-security: max-age=31536000
set-cookie: _cfuvid=mSYUYSfOicqTXQch505Gr6qNcmTM.FspqY8mCkIKWPk-1682547781589-0-604800000; path=/; domain=.gitlab.com; HttpOnly; Secure; SameSite=None
server: cloudflare
cf-ray: 7be23a51edefc070-ORF

HTTP/2 200 
date: Wed, 26 Apr 2023 22:23:02 GMT
content-type: text/html; charset=utf-8
cache-control: max-age=0, private, must-revalidate
content-security-policy: base-uri 'self'; child-src https://www.google.com/recaptcha/ https://www.recaptcha.net/ https://content.googleapis.com https://content-compute.googleapis.com https://content-cloudbilling.googleapis.com https://content-cloudresourcemanager.googleapis.com https://www.googletagmanager.com/ns.html https://*.zuora.com/apps/PublicHostedPageLite.do https://gitlab.com/admin/ https://gitlab.com/assets/ https://gitlab.com/-/speedscope/index.html https://gitlab.com/-/sandbox/ https://gitlab.com/assets/ blob: data:; connect-src 'self' https://gitlab.com wss://gitlab.com https://sentry.gitlab.net https://new-sentry.gitlab.net https://customers.gitlab.com https://snowplow.trx.gitlab.net https://sourcegraph.com snowplow.trx.gitlab.net https://sourcegraph.com/.api/; default-src 'self'; font-src 'self'; form-action 'self' https: http:; frame-ancestors 'self'; frame-src 'self' https://www.google.com/recaptcha/ https://www.recaptcha.net/ https://content.googleapis.com https://content-cloudresourcemanager.googleapis.com https://content-compute.googleapis.com https://content-cloudbilling.googleapis.com https://*.codesandbox.io https://customers.gitlab.com https://*.zuora.com/apps/PublicHostedPageLite.do; img-src * data: blob:; manifest-src 'self'; media-src 'self' data: http: https:; object-src 'none'; report-uri https://sentry.gitlab.net/api/105/security/?sentry_key=a42ea3adc19140d9a6424906e12fba86; script-src 'strict-dynamic' 'self' 'unsafe-inline' 'unsafe-eval' https://www.google.com/recaptcha/ https://www.gstatic.com/recaptcha/ https://www.recaptcha.net/ https://apis.google.com https://*.zuora.com/apps/PublicHostedPageLite.do 'nonce-UxNZKT3D016c0P0s4anEow=='; style-src 'self' 'unsafe-inline'; worker-src https://gitlab.com blob: data:
etag: W/"3cc46badba1dc014a89d5d165d425ba4"
permissions-policy: interest-cohort=()
referrer-policy: strict-origin-when-cross-origin
set-cookie: event_filter=all; path=/; Secure; SameSite=None
vary: Accept
x-content-type-options: nosniff
x-download-options: noopen
x-frame-options: SAMEORIGIN
x-permitted-cross-domain-policies: none
x-request-id: 01GYZTKC1037V8ESZSVQ2Q0399
x-runtime: 0.441792
x-ua-compatible: IE=edge
x-xss-protection: 1; mode=block
gitlab-lb: fe-18-lb-gprd
gitlab-sv: web-gke-us-east1-b
cf-cache-status: MISS
report-to: {"endpoints":[{"url":"https:\/\/a.nel.cloudflare.com\/report\/v3?s=2YW6Yx%2F8NyMM%2FJmf92cr%2F%2FZwMkesizbL%2FZfIsdC71A28kb0y1sSm7LYnDNs9Qhp0WLijUDDVY2bUke%2FRawsb8yvNdI%2FYuXlNjeSd3%2FUQj8zxzNriKHrxd5MwtJr8sTuGxSCFT1bqpiY%3D"}],"group":"cf-nel","max_age":604800}
nel: {"success_fraction":0.01,"report_to":"cf-nel","max_age":604800}
strict-transport-security: max-age=31536000
set-cookie: _gitlab_session=519636422a72db5a7369f67bf15dc226; path=/; expires=Thu, 27 Apr 2023 00:23:02 GMT; secure; HttpOnly; SameSite=None
set-cookie: _cfuvid=2Jppj5B9VShKPwtjba2gWOzYYhN8xWv_HFV.POwC6uY-1682547782134-0-604800000; path=/; domain=.gitlab.com; HttpOnly; Secure; SameSite=None
server: cloudflare
cf-ray: 7be23a530e65c070-ORF

