{
  "original_uri": "https://gitlab.com/Molcas/OpenMolcas",
  "self": "https://memgator.cs.odu.edu/timemap/json/https://gitlab.com/Molcas/OpenMolcas",
  "mementos": {
    "list": [
      {
        "datetime": "2018-04-23T17:04:52Z",
        "uri": "https://web.archive.org/web/20180423170452/https://gitlab.com/Molcas/OpenMolcas"
      },
      {
        "datetime": "2018-08-22T08:11:23Z",
        "uri": "https://web.archive.org/web/20180822081123/https://gitlab.com/Molcas/OpenMolcas"
      },
      {
        "datetime": "2019-04-07T18:41:44Z",
        "uri": "https://web.archive.org/web/20190407184144/https://gitlab.com/Molcas/OpenMolcas"
      },
      {
        "datetime": "2020-03-03T08:27:02Z",
        "uri": "https://arquivo.pt/wayback/20200303082702mp_/https://gitlab.com/Molcas/OpenMolcas"
      },
      {
        "datetime": "2021-05-06T17:42:57Z",
        "uri": "https://web.archive.org/web/20210506174257/https://gitlab.com/Molcas/OpenMolcas"
      },
      {
        "datetime": "2021-06-19T10:38:35Z",
        "uri": "https://web.archive.org/web/20210619103835/https://gitlab.com/Molcas/OpenMolcas/"
      },
      {
        "datetime": "2021-06-19T10:38:35Z",
        "uri": "https://web.archive.org/web/20210619103835/https://gitlab.com/Molcas/OpenMolcas/"
      },
      {
        "datetime": "2021-06-19T17:00:44Z",
        "uri": "https://web.archive.org/web/20210619170044/https://gitlab.com/Molcas/OpenMolcas"
      },
      {
        "datetime": "2021-06-19T17:00:44Z",
        "uri": "https://web.archive.org/web/20210619170044/https://gitlab.com/Molcas/OpenMolcas"
      },
      {
        "datetime": "2021-12-23T15:18:13Z",
        "uri": "https://web.archive.org/web/20211223151813/https://gitlab.com/Molcas/OpenMolcas"
      },
      {
        "datetime": "2021-12-23T15:18:23Z",
        "uri": "https://web.archive.org/web/20211223151823/https://gitlab.com/Molcas/OpenMolcas"
      },
      {
        "datetime": "2022-02-19T04:25:02Z",
        "uri": "https://web.archive.org/web/20220219042502/https://gitlab.com/Molcas/OpenMolcas"
      },
      {
        "datetime": "2022-03-16T00:23:31Z",
        "uri": "https://web.archive.org/web/20220316002331/https://gitlab.com/Molcas/OpenMolcas"
      },
      {
        "datetime": "2022-06-16T07:12:19Z",
        "uri": "https://web.archive.org/web/20220616071219/https://gitlab.com/Molcas/OpenMolcas"
      }
    ],
    "first": {
      "datetime": "2018-04-23T17:04:52Z",
      "uri": "https://web.archive.org/web/20180423170452/https://gitlab.com/Molcas/OpenMolcas"
    },
    "last": {
      "datetime": "2022-06-16T07:12:19Z",
      "uri": "https://web.archive.org/web/20220616071219/https://gitlab.com/Molcas/OpenMolcas"
    }
  },
  "timemap_uri": {
    "link_format": "https://memgator.cs.odu.edu/timemap/link/https://gitlab.com/Molcas/OpenMolcas",
    "json_format": "https://memgator.cs.odu.edu/timemap/json/https://gitlab.com/Molcas/OpenMolcas",
    "cdxj_format": "https://memgator.cs.odu.edu/timemap/cdxj/https://gitlab.com/Molcas/OpenMolcas"
  },
  "timegate_uri": "https://memgator.cs.odu.edu/timegate/https://gitlab.com/Molcas/OpenMolcas"
}
