{
  "original_uri": "https://gitlab.com/Molcas/OpenMolcas%E2%80%9D",
  "self": "https://memgator.cs.odu.edu/timemap/json/https://gitlab.com/Molcas/OpenMolcas%E2%80%9D",
  "mementos": {
    "list": [
      {
        "datetime": "2022-07-09T22:14:24Z",
        "uri": "https://web.archive.org/web/20220709221424/https://gitlab.com/Molcas/OpenMolcas%E2%80%9D"
      },
      {
        "datetime": "2022-07-10T05:05:43Z",
        "uri": "https://web.archive.org/web/20220710050543/https://gitlab.com/Molcas/OpenMolcas%E2%80%9D"
      },
      {
        "datetime": "2022-07-10T08:03:36Z",
        "uri": "https://web.archive.org/web/20220710080336/https://gitlab.com/Molcas/OpenMolcas%E2%80%9D"
      }
    ],
    "first": {
      "datetime": "2022-07-09T22:14:24Z",
      "uri": "https://web.archive.org/web/20220709221424/https://gitlab.com/Molcas/OpenMolcas%E2%80%9D"
    },
    "last": {
      "datetime": "2022-07-10T08:03:36Z",
      "uri": "https://web.archive.org/web/20220710080336/https://gitlab.com/Molcas/OpenMolcas%E2%80%9D"
    }
  },
  "timemap_uri": {
    "link_format": "https://memgator.cs.odu.edu/timemap/link/https://gitlab.com/Molcas/OpenMolcas%E2%80%9D",
    "json_format": "https://memgator.cs.odu.edu/timemap/json/https://gitlab.com/Molcas/OpenMolcas%E2%80%9D",
    "cdxj_format": "https://memgator.cs.odu.edu/timemap/cdxj/https://gitlab.com/Molcas/OpenMolcas%E2%80%9D"
  },
  "timegate_uri": "https://memgator.cs.odu.edu/timegate/https://gitlab.com/Molcas/OpenMolcas%E2%80%9D"
}
