{ "id": 147664770, "node_id": "MDEwOlJlcG9zaXRvcnkxNDc2NjQ3NzA=", "name": "gsd", "full_name": "glotzerlab/gsd", "private": false, "owner": { "login": "glotzerlab", "id": 25832198, "node_id": "MDEyOk9yZ2FuaXphdGlvbjI1ODMyMTk4", "avatar_url": "https://avatars.githubusercontent.com/u/25832198?v=4", "gravatar_id": "", "url": "https://api.github.com/users/glotzerlab", "html_url": "https://github.com/glotzerlab", "followers_url": "https://api.github.com/users/glotzerlab/followers", "following_url": "https://api.github.com/users/glotzerlab/following{/other_user}", "gists_url": "https://api.github.com/users/glotzerlab/gists{/gist_id}", "starred_url": "https://api.github.com/users/glotzerlab/starred{/owner}{/repo}", "subscriptions_url": "https://api.github.com/users/glotzerlab/subscriptions", "organizations_url": "https://api.github.com/users/glotzerlab/orgs", "repos_url": "https://api.github.com/users/glotzerlab/repos", "events_url": "https://api.github.com/users/glotzerlab/events{/privacy}", "received_events_url": "https://api.github.com/users/glotzerlab/received_events", "type": "Organization", "site_admin": false }, "html_url": "https://github.com/glotzerlab/gsd", "description": "Read and write GSD files for use with HOOMD-blue.", "fork": false, "url": "https://api.github.com/repos/glotzerlab/gsd", "forks_url": "https://api.github.com/repos/glotzerlab/gsd/forks", "keys_url": "https://api.github.com/repos/glotzerlab/gsd/keys{/key_id}", "collaborators_url": "https://api.github.com/repos/glotzerlab/gsd/collaborators{/collaborator}", "teams_url": "https://api.github.com/repos/glotzerlab/gsd/teams", "hooks_url": "https://api.github.com/repos/glotzerlab/gsd/hooks", "issue_events_url": "https://api.github.com/repos/glotzerlab/gsd/issues/events{/number}", "events_url": "https://api.github.com/repos/glotzerlab/gsd/events", "assignees_url": "https://api.github.com/repos/glotzerlab/gsd/assignees{/user}", "branches_url": "https://api.github.com/repos/glotzerlab/gsd/branches{/branch}", "tags_url": "https://api.github.com/repos/glotzerlab/gsd/tags", "blobs_url": "https://api.github.com/repos/glotzerlab/gsd/git/blobs{/sha}", "git_tags_url": "https://api.github.com/repos/glotzerlab/gsd/git/tags{/sha}", "git_refs_url": "https://api.github.com/repos/glotzerlab/gsd/git/refs{/sha}", "trees_url": "https://api.github.com/repos/glotzerlab/gsd/git/trees{/sha}", "statuses_url": "https://api.github.com/repos/glotzerlab/gsd/statuses/{sha}", "languages_url": "https://api.github.com/repos/glotzerlab/gsd/languages", "stargazers_url": "https://api.github.com/repos/glotzerlab/gsd/stargazers", "contributors_url": "https://api.github.com/repos/glotzerlab/gsd/contributors", "subscribers_url": "https://api.github.com/repos/glotzerlab/gsd/subscribers", "subscription_url": "https://api.github.com/repos/glotzerlab/gsd/subscription", "commits_url": "https://api.github.com/repos/glotzerlab/gsd/commits{/sha}", "git_commits_url": "https://api.github.com/repos/glotzerlab/gsd/git/commits{/sha}", "comments_url": "https://api.github.com/repos/glotzerlab/gsd/comments{/number}", "issue_comment_url": "https://api.github.com/repos/glotzerlab/gsd/issues/comments{/number}", "contents_url": "https://api.github.com/repos/glotzerlab/gsd/contents/{+path}", "compare_url": "https://api.github.com/repos/glotzerlab/gsd/compare/{base}...{head}", "merges_url": "https://api.github.com/repos/glotzerlab/gsd/merges", "archive_url": "https://api.github.com/repos/glotzerlab/gsd/{archive_format}{/ref}", "downloads_url": "https://api.github.com/repos/glotzerlab/gsd/downloads", "issues_url": "https://api.github.com/repos/glotzerlab/gsd/issues{/number}", "pulls_url": "https://api.github.com/repos/glotzerlab/gsd/pulls{/number}", "milestones_url": "https://api.github.com/repos/glotzerlab/gsd/milestones{/number}", "notifications_url": "https://api.github.com/repos/glotzerlab/gsd/notifications{?since,all,participating}", "labels_url": "https://api.github.com/repos/glotzerlab/gsd/labels{/name}", "releases_url": "https://api.github.com/repos/glotzerlab/gsd/releases{/id}", "deployments_url": "https://api.github.com/repos/glotzerlab/gsd/deployments", "created_at": "2018-09-06T11:40:13Z", "updated_at": "2023-01-20T16:04:35Z", "pushed_at": "2023-02-02T19:34:31Z", "git_url": "git://github.com/glotzerlab/gsd.git", "ssh_url": "git@github.com:glotzerlab/gsd.git", "clone_url": "https://github.com/glotzerlab/gsd.git", "svn_url": "https://github.com/glotzerlab/gsd", "homepage": "http://gsd.readthedocs.io", "size": 1902, "stargazers_count": 21, "watchers_count": 21, "language": "Python", "has_issues": true, "has_projects": false, "has_downloads": true, "has_wiki": false, "has_pages": false, "has_discussions": false, "forks_count": 7, "mirror_url": null, "archived": false, "disabled": false, "open_issues_count": 3, "license": { "key": "bsd-2-clause", "name": "BSD 2-Clause \"Simplified\" License", "spdx_id": "BSD-2-Clause", "url": "https://api.github.com/licenses/bsd-2-clause", "node_id": "MDc6TGljZW5zZTQ=" }, "allow_forking": true, "is_template": false, "web_commit_signoff_required": false, "topics": [ "binary", "file-format", "gsd", "hoomd", "python" ], "visibility": "public", "forks": 7, "open_issues": 3, "watchers": 21, "default_branch": "trunk-patch", "permissions": { "admin": false, "maintain": false, "push": false, "triage": false, "pull": true }, "temp_clone_token": "", "organization": { "login": "glotzerlab", "id": 25832198, "node_id": "MDEyOk9yZ2FuaXphdGlvbjI1ODMyMTk4", "avatar_url": "https://avatars.githubusercontent.com/u/25832198?v=4", "gravatar_id": "", "url": "https://api.github.com/users/glotzerlab", "html_url": "https://github.com/glotzerlab", "followers_url": "https://api.github.com/users/glotzerlab/followers", "following_url": "https://api.github.com/users/glotzerlab/following{/other_user}", "gists_url": "https://api.github.com/users/glotzerlab/gists{/gist_id}", "starred_url": "https://api.github.com/users/glotzerlab/starred{/owner}{/repo}", "subscriptions_url": "https://api.github.com/users/glotzerlab/subscriptions", "organizations_url": "https://api.github.com/users/glotzerlab/orgs", "repos_url": "https://api.github.com/users/glotzerlab/repos", "events_url": "https://api.github.com/users/glotzerlab/events{/privacy}", "received_events_url": "https://api.github.com/users/glotzerlab/received_events", "type": "Organization", "site_admin": false }, "network_count": 7, "subscribers_count": 7 }
