[{"origin":"https://gitlab.com/Molcas/OpenMolcas.git","visit":17,"date":"2022-11-21T13:42:50.703504+00:00","status":"full","snapshot":"3a227f2e44fb29ce062ee8a5921e62e167387695","type":"git","metadata":{},"origin_visit_url":"https://archive.softwareheritage.org/api/1/origin/https://gitlab.com/Molcas/OpenMolcas.git/visit/17/","snapshot_url":"https://archive.softwareheritage.org/api/1/snapshot/3a227f2e44fb29ce062ee8a5921e62e167387695/"},{"origin":"https://gitlab.com/Molcas/OpenMolcas.git","visit":16,"date":"2022-08-08T12:16:25.471257+00:00","status":"full","snapshot":"c060641f2714f2b71995d746ff7d545f3cd83080","type":"git","metadata":{},"origin_visit_url":"https://archive.softwareheritage.org/api/1/origin/https://gitlab.com/Molcas/OpenMolcas.git/visit/16/","snapshot_url":"https://archive.softwareheritage.org/api/1/snapshot/c060641f2714f2b71995d746ff7d545f3cd83080/"},{"origin":"https://gitlab.com/Molcas/OpenMolcas.git","visit":15,"date":"2022-08-03T20:05:17.153321+00:00","status":"full","snapshot":"f562a55493a9ec8ef42ddd1b18e5c5886b80171a","type":"git","metadata":{},"origin_visit_url":"https://archive.softwareheritage.org/api/1/origin/https://gitlab.com/Molcas/OpenMolcas.git/visit/15/","snapshot_url":"https://archive.softwareheritage.org/api/1/snapshot/f562a55493a9ec8ef42ddd1b18e5c5886b80171a/"},{"origin":"https://gitlab.com/Molcas/OpenMolcas.git","visit":14,"date":"2022-05-01T08:42:22.935411+00:00","status":"full","snapshot":"a4d6d2830a1d830d80d098bb5bf2ceeabdc7c814","type":"git","metadata":{},"origin_visit_url":"https://archive.softwareheritage.org/api/1/origin/https://gitlab.com/Molcas/OpenMolcas.git/visit/14/","snapshot_url":"https://archive.softwareheritage.org/api/1/snapshot/a4d6d2830a1d830d80d098bb5bf2ceeabdc7c814/"},{"origin":"https://gitlab.com/Molcas/OpenMolcas.git","visit":13,"date":"2022-02-01T19:30:24.476044+00:00","status":"full","snapshot":"49dde49ad606ab3fbeb8c0a22d1c3391c717e934","type":"git","metadata":{},"origin_visit_url":"https://archive.softwareheritage.org/api/1/origin/https://gitlab.com/Molcas/OpenMolcas.git/visit/13/","snapshot_url":"https://archive.softwareheritage.org/api/1/snapshot/49dde49ad606ab3fbeb8c0a22d1c3391c717e934/"},{"origin":"https://gitlab.com/Molcas/OpenMolcas.git","visit":12,"date":"2021-10-29T23:35:06.752964+00:00","status":"full","snapshot":"3ad608e472cfae2e57caa4cb5ac286cbb87c5e50","type":"git","metadata":{},"origin_visit_url":"https://archive.softwareheritage.org/api/1/origin/https://gitlab.com/Molcas/OpenMolcas.git/visit/12/","snapshot_url":"https://archive.softwareheritage.org/api/1/snapshot/3ad608e472cfae2e57caa4cb5ac286cbb87c5e50/"},{"origin":"https://gitlab.com/Molcas/OpenMolcas.git","visit":11,"date":"2021-10-29T07:22:56.501071+00:00","status":"full","snapshot":"6d5c70200e60adee69e990c1fbc73bb307fc24fb","type":"git","metadata":{},"origin_visit_url":"https://archive.softwareheritage.org/api/1/origin/https://gitlab.com/Molcas/OpenMolcas.git/visit/11/","snapshot_url":"https://archive.softwareheritage.org/api/1/snapshot/6d5c70200e60adee69e990c1fbc73bb307fc24fb/"},{"origin":"https://gitlab.com/Molcas/OpenMolcas.git","visit":10,"date":"2021-08-25T21:38:30.894618+00:00","status":"full","snapshot":"b60e44c00ebd8d2e8d97e2b4ce6a825e4fed448f","type":"git","metadata":{},"origin_visit_url":"https://archive.softwareheritage.org/api/1/origin/https://gitlab.com/Molcas/OpenMolcas.git/visit/10/","snapshot_url":"https://archive.softwareheritage.org/api/1/snapshot/b60e44c00ebd8d2e8d97e2b4ce6a825e4fed448f/"},{"origin":"https://gitlab.com/Molcas/OpenMolcas.git","visit":9,"date":"2021-08-24T19:32:13.791820+00:00","status":"full","snapshot":"976bc9d456dd6eb8c0158a3e5d418b473706219b","type":"git","metadata":{},"origin_visit_url":"https://archive.softwareheritage.org/api/1/origin/https://gitlab.com/Molcas/OpenMolcas.git/visit/9/","snapshot_url":"https://archive.softwareheritage.org/api/1/snapshot/976bc9d456dd6eb8c0158a3e5d418b473706219b/"},{"origin":"https://gitlab.com/Molcas/OpenMolcas.git","visit":8,"date":"2021-08-13T07:34:11.811467+00:00","status":"full","snapshot":"ee8a1ebe2d4e7e47c3a834d1b5fb1f7c7dc225a6","type":"git","metadata":{},"origin_visit_url":"https://archive.softwareheritage.org/api/1/origin/https://gitlab.com/Molcas/OpenMolcas.git/visit/8/","snapshot_url":"https://archive.softwareheritage.org/api/1/snapshot/ee8a1ebe2d4e7e47c3a834d1b5fb1f7c7dc225a6/"}]
[{"origin":"https://gitlab.com/Molcas/OpenMolcas.git","visit":7,"date":"2021-07-29T18:26:47.287240+00:00","status":"full","snapshot":"0fde0fc8f5f7344ba1e5377968eb6e5689943e77","type":"git","metadata":{},"origin_visit_url":"https://archive.softwareheritage.org/api/1/origin/https://gitlab.com/Molcas/OpenMolcas.git/visit/7/","snapshot_url":"https://archive.softwareheritage.org/api/1/snapshot/0fde0fc8f5f7344ba1e5377968eb6e5689943e77/"},{"origin":"https://gitlab.com/Molcas/OpenMolcas.git","visit":6,"date":"2021-01-25T02:13:34.129727+00:00","status":"full","snapshot":"cb40cbbdd6d25d5626f9e0f1ddea1b2b8b4b90db","type":"git","metadata":{},"origin_visit_url":"https://archive.softwareheritage.org/api/1/origin/https://gitlab.com/Molcas/OpenMolcas.git/visit/6/","snapshot_url":"https://archive.softwareheritage.org/api/1/snapshot/cb40cbbdd6d25d5626f9e0f1ddea1b2b8b4b90db/"},{"origin":"https://gitlab.com/Molcas/OpenMolcas.git","visit":5,"date":"2020-03-05T12:04:53.078012+00:00","status":"full","snapshot":"4969f854b712f8398584fa36225df08bcebc2fce","type":"git","metadata":{},"origin_visit_url":"https://archive.softwareheritage.org/api/1/origin/https://gitlab.com/Molcas/OpenMolcas.git/visit/5/","snapshot_url":"https://archive.softwareheritage.org/api/1/snapshot/4969f854b712f8398584fa36225df08bcebc2fce/"},{"origin":"https://gitlab.com/Molcas/OpenMolcas.git","visit":4,"date":"2020-01-11T01:30:27.356485+00:00","status":"full","snapshot":"8d4eef7463774909b5fdc54380d3076d2c879a03","type":"git","metadata":{},"origin_visit_url":"https://archive.softwareheritage.org/api/1/origin/https://gitlab.com/Molcas/OpenMolcas.git/visit/4/","snapshot_url":"https://archive.softwareheritage.org/api/1/snapshot/8d4eef7463774909b5fdc54380d3076d2c879a03/"},{"origin":"https://gitlab.com/Molcas/OpenMolcas.git","visit":3,"date":"2019-07-18T00:42:32.619993+00:00","status":"full","snapshot":"1f6faef55dd97443c7062fb272e8e253bda4ec6c","type":"git","metadata":{},"origin_visit_url":"https://archive.softwareheritage.org/api/1/origin/https://gitlab.com/Molcas/OpenMolcas.git/visit/3/","snapshot_url":"https://archive.softwareheritage.org/api/1/snapshot/1f6faef55dd97443c7062fb272e8e253bda4ec6c/"},{"origin":"https://gitlab.com/Molcas/OpenMolcas.git","visit":2,"date":"2019-04-22T20:56:05.414496+00:00","status":"full","snapshot":"c1c9280fca73ae78162c3dad415e672ad007a411","type":"git","metadata":{},"origin_visit_url":"https://archive.softwareheritage.org/api/1/origin/https://gitlab.com/Molcas/OpenMolcas.git/visit/2/","snapshot_url":"https://archive.softwareheritage.org/api/1/snapshot/c1c9280fca73ae78162c3dad415e672ad007a411/"},{"origin":"https://gitlab.com/Molcas/OpenMolcas.git","visit":1,"date":"2018-08-29T14:11:40.279036+00:00","status":"full","snapshot":"32c94324bbb1d873ecb8221cf39837cd4973b030","type":"git","metadata":{},"origin_visit_url":"https://archive.softwareheritage.org/api/1/origin/https://gitlab.com/Molcas/OpenMolcas.git/visit/1/","snapshot_url":"https://archive.softwareheritage.org/api/1/snapshot/32c94324bbb1d873ecb8221cf39837cd4973b030/"}]
