{"exception":"NotFoundExc","reason":"Origin with url https://gitlab.com/Molcas/OpenMolcas”.git not found!"}
